(written by ASE)

256 atoms
1 atom types

0.0      17.979476439790577  xlo xhi
0.0      17.979476439790577  ylo yhi
0.0      17.979476439790577  zlo zhi

Atoms # atomic

     1   1                       0                       0                       0
     2   1      2.2474345549738222      2.2474345549738222                       0
     3   1      2.2474345549738222                       0      2.2474345549738222
     4   1                       0      2.2474345549738222      2.2474345549738222
     5   1      4.4948691099476443                       0                       0
     6   1      6.7423036649214669      2.2474345549738222                       0
     7   1      6.7423036649214669                       0      2.2474345549738222
     8   1      4.4948691099476443      2.2474345549738222      2.2474345549738222
     9   1      8.9897382198952887                       0                       0
    10   1       11.23717277486911      2.2474345549738222                       0
    11   1       11.23717277486911                       0      2.2474345549738222
    12   1      8.9897382198952887      2.2474345549738222      2.2474345549738222
    13   1      13.484607329842934                       0                       0
    14   1      15.732041884816756      2.2474345549738222                       0
    15   1      15.732041884816756                       0      2.2474345549738222
    16   1      13.484607329842934      2.2474345549738222      2.2474345549738222
    17   1                       0      4.4948691099476443                       0
    18   1      2.2474345549738222      6.7423036649214669                       0
    19   1      2.2474345549738222      4.4948691099476443      2.2474345549738222
    20   1                       0      6.7423036649214669      2.2474345549738222
    21   1      4.4948691099476443      4.4948691099476443                       0
    22   1      6.7423036649214669      6.7423036649214669                       0
    23   1      6.7423036649214669      4.4948691099476443      2.2474345549738222
    24   1      4.4948691099476443      6.7423036649214669      2.2474345549738222
    25   1      8.9897382198952887      4.4948691099476443                       0
    26   1       11.23717277486911      6.7423036649214669                       0
    27   1       11.23717277486911      4.4948691099476443      2.2474345549738222
    28   1      8.9897382198952887      6.7423036649214669      2.2474345549738222
    29   1      13.484607329842934      4.4948691099476443                       0
    30   1      15.732041884816756      6.7423036649214669                       0
    31   1      15.732041884816756      4.4948691099476443      2.2474345549738222
    32   1      13.484607329842934      6.7423036649214669      2.2474345549738222
    33   1                       0      8.9897382198952887                       0
    34   1      2.2474345549738222       11.23717277486911                       0
    35   1      2.2474345549738222      8.9897382198952887      2.2474345549738222
    36   1                       0       11.23717277486911      2.2474345549738222
    37   1      4.4948691099476443      8.9897382198952887                       0
    38   1      6.7423036649214669       11.23717277486911                       0
    39   1      6.7423036649214669      8.9897382198952887      2.2474345549738222
    40   1      4.4948691099476443       11.23717277486911      2.2474345549738222
    41   1      8.9897382198952887      8.9897382198952887                       0
    42   1       11.23717277486911       11.23717277486911                       0
    43   1       11.23717277486911      8.9897382198952887      2.2474345549738222
    44   1      8.9897382198952887       11.23717277486911      2.2474345549738222
    45   1      13.484607329842934      8.9897382198952887                       0
    46   1      15.732041884816756       11.23717277486911                       0
    47   1      15.732041884816756      8.9897382198952887      2.2474345549738222
    48   1      13.484607329842934       11.23717277486911      2.2474345549738222
    49   1                       0      13.484607329842934                       0
    50   1      2.2474345549738222      15.732041884816756                       0
    51   1      2.2474345549738222      13.484607329842934      2.2474345549738222
    52   1                       0      15.732041884816756      2.2474345549738222
    53   1      4.4948691099476443      13.484607329842934                       0
    54   1      6.7423036649214669      15.732041884816756                       0
    55   1      6.7423036649214669      13.484607329842934      2.2474345549738222
    56   1      4.4948691099476443      15.732041884816756      2.2474345549738222
    57   1      8.9897382198952887      13.484607329842934                       0
    58   1       11.23717277486911      15.732041884816756                       0
    59   1       11.23717277486911      13.484607329842934      2.2474345549738222
    60   1      8.9897382198952887      15.732041884816756      2.2474345549738222
    61   1      13.484607329842934      13.484607329842934                       0
    62   1      15.732041884816756      15.732041884816756                       0
    63   1      15.732041884816756      13.484607329842934      2.2474345549738222
    64   1      13.484607329842934      15.732041884816756      2.2474345549738222
    65   1                       0                       0      4.4948691099476443
    66   1      2.2474345549738222      2.2474345549738222      4.4948691099476443
    67   1      2.2474345549738222                       0      6.7423036649214669
    68   1                       0      2.2474345549738222      6.7423036649214669
    69   1      4.4948691099476443                       0      4.4948691099476443
    70   1      6.7423036649214669      2.2474345549738222      4.4948691099476443
    71   1      6.7423036649214669                       0      6.7423036649214669
    72   1      4.4948691099476443      2.2474345549738222      6.7423036649214669
    73   1      8.9897382198952887                       0      4.4948691099476443
    74   1       11.23717277486911      2.2474345549738222      4.4948691099476443
    75   1       11.23717277486911                       0      6.7423036649214669
    76   1      8.9897382198952887      2.2474345549738222      6.7423036649214669
    77   1      13.484607329842934                       0      4.4948691099476443
    78   1      15.732041884816756      2.2474345549738222      4.4948691099476443
    79   1      15.732041884816756                       0      6.7423036649214669
    80   1      13.484607329842934      2.2474345549738222      6.7423036649214669
    81   1                       0      4.4948691099476443      4.4948691099476443
    82   1      2.2474345549738222      6.7423036649214669      4.4948691099476443
    83   1      2.2474345549738222      4.4948691099476443      6.7423036649214669
    84   1                       0      6.7423036649214669      6.7423036649214669
    85   1      4.4948691099476443      4.4948691099476443      4.4948691099476443
    86   1      6.7423036649214669      6.7423036649214669      4.4948691099476443
    87   1      6.7423036649214669      4.4948691099476443      6.7423036649214669
    88   1      4.4948691099476443      6.7423036649214669      6.7423036649214669
    89   1      8.9897382198952887      4.4948691099476443      4.4948691099476443
    90   1       11.23717277486911      6.7423036649214669      4.4948691099476443
    91   1       11.23717277486911      4.4948691099476443      6.7423036649214669
    92   1      8.9897382198952887      6.7423036649214669      6.7423036649214669
    93   1      13.484607329842934      4.4948691099476443      4.4948691099476443
    94   1      15.732041884816756      6.7423036649214669      4.4948691099476443
    95   1      15.732041884816756      4.4948691099476443      6.7423036649214669
    96   1      13.484607329842934      6.7423036649214669      6.7423036649214669
    97   1                       0      8.9897382198952887      4.4948691099476443
    98   1      2.2474345549738222       11.23717277486911      4.4948691099476443
    99   1      2.2474345549738222      8.9897382198952887      6.7423036649214669
   100   1                       0       11.23717277486911      6.7423036649214669
   101   1      4.4948691099476443      8.9897382198952887      4.4948691099476443
   102   1      6.7423036649214669       11.23717277486911      4.4948691099476443
   103   1      6.7423036649214669      8.9897382198952887      6.7423036649214669
   104   1      4.4948691099476443       11.23717277486911      6.7423036649214669
   105   1      8.9897382198952887      8.9897382198952887      4.4948691099476443
   106   1       11.23717277486911       11.23717277486911      4.4948691099476443
   107   1       11.23717277486911      8.9897382198952887      6.7423036649214669
   108   1      8.9897382198952887       11.23717277486911      6.7423036649214669
   109   1      13.484607329842934      8.9897382198952887      4.4948691099476443
   110   1      15.732041884816756       11.23717277486911      4.4948691099476443
   111   1      15.732041884816756      8.9897382198952887      6.7423036649214669
   112   1      13.484607329842934       11.23717277486911      6.7423036649214669
   113   1                       0      13.484607329842934      4.4948691099476443
   114   1      2.2474345549738222      15.732041884816756      4.4948691099476443
   115   1      2.2474345549738222      13.484607329842934      6.7423036649214669
   116   1                       0      15.732041884816756      6.7423036649214669
   117   1      4.4948691099476443      13.484607329842934      4.4948691099476443
   118   1      6.7423036649214669      15.732041884816756      4.4948691099476443
   119   1      6.7423036649214669      13.484607329842934      6.7423036649214669
   120   1      4.4948691099476443      15.732041884816756      6.7423036649214669
   121   1      8.9897382198952887      13.484607329842934      4.4948691099476443
   122   1       11.23717277486911      15.732041884816756      4.4948691099476443
   123   1       11.23717277486911      13.484607329842934      6.7423036649214669
   124   1      8.9897382198952887      15.732041884816756      6.7423036649214669
   125   1      13.484607329842934      13.484607329842934      4.4948691099476443
   126   1      15.732041884816756      15.732041884816756      4.4948691099476443
   127   1      15.732041884816756      13.484607329842934      6.7423036649214669
   128   1      13.484607329842934      15.732041884816756      6.7423036649214669
   129   1                       0                       0      8.9897382198952887
   130   1      2.2474345549738222      2.2474345549738222      8.9897382198952887
   131   1      2.2474345549738222                       0       11.23717277486911
   132   1                       0      2.2474345549738222       11.23717277486911
   133   1      4.4948691099476443                       0      8.9897382198952887
   134   1      6.7423036649214669      2.2474345549738222      8.9897382198952887
   135   1      6.7423036649214669                       0       11.23717277486911
   136   1      4.4948691099476443      2.2474345549738222       11.23717277486911
   137   1      8.9897382198952887                       0      8.9897382198952887
   138   1       11.23717277486911      2.2474345549738222      8.9897382198952887
   139   1       11.23717277486911                       0       11.23717277486911
   140   1      8.9897382198952887      2.2474345549738222       11.23717277486911
   141   1      13.484607329842934                       0      8.9897382198952887
   142   1      15.732041884816756      2.2474345549738222      8.9897382198952887
   143   1      15.732041884816756                       0       11.23717277486911
   144   1      13.484607329842934      2.2474345549738222       11.23717277486911
   145   1                       0      4.4948691099476443      8.9897382198952887
   146   1      2.2474345549738222      6.7423036649214669      8.9897382198952887
   147   1      2.2474345549738222      4.4948691099476443       11.23717277486911
   148   1                       0      6.7423036649214669       11.23717277486911
   149   1      4.4948691099476443      4.4948691099476443      8.9897382198952887
   150   1      6.7423036649214669      6.7423036649214669      8.9897382198952887
   151   1      6.7423036649214669      4.4948691099476443       11.23717277486911
   152   1      4.4948691099476443      6.7423036649214669       11.23717277486911
   153   1      8.9897382198952887      4.4948691099476443      8.9897382198952887
   154   1       11.23717277486911      6.7423036649214669      8.9897382198952887
   155   1       11.23717277486911      4.4948691099476443       11.23717277486911
   156   1      8.9897382198952887      6.7423036649214669       11.23717277486911
   157   1      13.484607329842934      4.4948691099476443      8.9897382198952887
   158   1      15.732041884816756      6.7423036649214669      8.9897382198952887
   159   1      15.732041884816756      4.4948691099476443       11.23717277486911
   160   1      13.484607329842934      6.7423036649214669       11.23717277486911
   161   1                       0      8.9897382198952887      8.9897382198952887
   162   1      2.2474345549738222       11.23717277486911      8.9897382198952887
   163   1      2.2474345549738222      8.9897382198952887       11.23717277486911
   164   1                       0       11.23717277486911       11.23717277486911
   165   1      4.4948691099476443      8.9897382198952887      8.9897382198952887
   166   1      6.7423036649214669       11.23717277486911      8.9897382198952887
   167   1      6.7423036649214669      8.9897382198952887       11.23717277486911
   168   1      4.4948691099476443       11.23717277486911       11.23717277486911
   169   1      8.9897382198952887      8.9897382198952887      8.9897382198952887
   170   1       11.23717277486911       11.23717277486911      8.9897382198952887
   171   1       11.23717277486911      8.9897382198952887       11.23717277486911
   172   1      8.9897382198952887       11.23717277486911       11.23717277486911
   173   1      13.484607329842934      8.9897382198952887      8.9897382198952887
   174   1      15.732041884816756       11.23717277486911      8.9897382198952887
   175   1      15.732041884816756      8.9897382198952887       11.23717277486911
   176   1      13.484607329842934       11.23717277486911       11.23717277486911
   177   1                       0      13.484607329842934      8.9897382198952887
   178   1      2.2474345549738222      15.732041884816756      8.9897382198952887
   179   1      2.2474345549738222      13.484607329842934       11.23717277486911
   180   1                       0      15.732041884816756       11.23717277486911
   181   1      4.4948691099476443      13.484607329842934      8.9897382198952887
   182   1      6.7423036649214669      15.732041884816756      8.9897382198952887
   183   1      6.7423036649214669      13.484607329842934       11.23717277486911
   184   1      4.4948691099476443      15.732041884816756       11.23717277486911
   185   1      8.9897382198952887      13.484607329842934      8.9897382198952887
   186   1       11.23717277486911      15.732041884816756      8.9897382198952887
   187   1       11.23717277486911      13.484607329842934       11.23717277486911
   188   1      8.9897382198952887      15.732041884816756       11.23717277486911
   189   1      13.484607329842934      13.484607329842934      8.9897382198952887
   190   1      15.732041884816756      15.732041884816756      8.9897382198952887
   191   1      15.732041884816756      13.484607329842934       11.23717277486911
   192   1      13.484607329842934      15.732041884816756       11.23717277486911
   193   1                       0                       0      13.484607329842934
   194   1      2.2474345549738222      2.2474345549738222      13.484607329842934
   195   1      2.2474345549738222                       0      15.732041884816756
   196   1                       0      2.2474345549738222      15.732041884816756
   197   1      4.4948691099476443                       0      13.484607329842934
   198   1      6.7423036649214669      2.2474345549738222      13.484607329842934
   199   1      6.7423036649214669                       0      15.732041884816756
   200   1      4.4948691099476443      2.2474345549738222      15.732041884816756
   201   1      8.9897382198952887                       0      13.484607329842934
   202   1       11.23717277486911      2.2474345549738222      13.484607329842934
   203   1       11.23717277486911                       0      15.732041884816756
   204   1      8.9897382198952887      2.2474345549738222      15.732041884816756
   205   1      13.484607329842934                       0      13.484607329842934
   206   1      15.732041884816756      2.2474345549738222      13.484607329842934
   207   1      15.732041884816756                       0      15.732041884816756
   208   1      13.484607329842934      2.2474345549738222      15.732041884816756
   209   1                       0      4.4948691099476443      13.484607329842934
   210   1      2.2474345549738222      6.7423036649214669      13.484607329842934
   211   1      2.2474345549738222      4.4948691099476443      15.732041884816756
   212   1                       0      6.7423036649214669      15.732041884816756
   213   1      4.4948691099476443      4.4948691099476443      13.484607329842934
   214   1      6.7423036649214669      6.7423036649214669      13.484607329842934
   215   1      6.7423036649214669      4.4948691099476443      15.732041884816756
   216   1      4.4948691099476443      6.7423036649214669      15.732041884816756
   217   1      8.9897382198952887      4.4948691099476443      13.484607329842934
   218   1       11.23717277486911      6.7423036649214669      13.484607329842934
   219   1       11.23717277486911      4.4948691099476443      15.732041884816756
   220   1      8.9897382198952887      6.7423036649214669      15.732041884816756
   221   1      13.484607329842934      4.4948691099476443      13.484607329842934
   222   1      15.732041884816756      6.7423036649214669      13.484607329842934
   223   1      15.732041884816756      4.4948691099476443      15.732041884816756
   224   1      13.484607329842934      6.7423036649214669      15.732041884816756
   225   1                       0      8.9897382198952887      13.484607329842934
   226   1      2.2474345549738222       11.23717277486911      13.484607329842934
   227   1      2.2474345549738222      8.9897382198952887      15.732041884816756
   228   1                       0       11.23717277486911      15.732041884816756
   229   1      4.4948691099476443      8.9897382198952887      13.484607329842934
   230   1      6.7423036649214669       11.23717277486911      13.484607329842934
   231   1      6.7423036649214669      8.9897382198952887      15.732041884816756
   232   1      4.4948691099476443       11.23717277486911      15.732041884816756
   233   1      8.9897382198952887      8.9897382198952887      13.484607329842934
   234   1       11.23717277486911       11.23717277486911      13.484607329842934
   235   1       11.23717277486911      8.9897382198952887      15.732041884816756
   236   1      8.9897382198952887       11.23717277486911      15.732041884816756
   237   1      13.484607329842934      8.9897382198952887      13.484607329842934
   238   1      15.732041884816756       11.23717277486911      13.484607329842934
   239   1      15.732041884816756      8.9897382198952887      15.732041884816756
   240   1      13.484607329842934       11.23717277486911      15.732041884816756
   241   1                       0      13.484607329842934      13.484607329842934
   242   1      2.2474345549738222      15.732041884816756      13.484607329842934
   243   1      2.2474345549738222      13.484607329842934      15.732041884816756
   244   1                       0      15.732041884816756      15.732041884816756
   245   1      4.4948691099476443      13.484607329842934      13.484607329842934
   246   1      6.7423036649214669      15.732041884816756      13.484607329842934
   247   1      6.7423036649214669      13.484607329842934      15.732041884816756
   248   1      4.4948691099476443      15.732041884816756      15.732041884816756
   249   1      8.9897382198952887      13.484607329842934      13.484607329842934
   250   1       11.23717277486911      15.732041884816756      13.484607329842934
   251   1       11.23717277486911      13.484607329842934      15.732041884816756
   252   1      8.9897382198952887      15.732041884816756      15.732041884816756
   253   1      13.484607329842934      13.484607329842934      13.484607329842934
   254   1      15.732041884816756      15.732041884816756      13.484607329842934
   255   1      15.732041884816756      13.484607329842934      15.732041884816756
   256   1      13.484607329842934      15.732041884816756      15.732041884816756
